version 2
run WirelessProcessingNet-0-20140529-01:41:42-3124
attr configname WirelessProcessingNet
attr datetime 20140529-01:41:42
attr experiment WirelessProcessingNet
attr inifile omnetpp.ini
attr iterationvars ""
attr iterationvars2 $repetition=0
attr measurement ""
attr network WirelessProcessingNet
attr processid 3124
attr repetition 0
attr replication #0
attr resultdir results
attr runnumber 0
attr seedset 0

vector 0  WirelessProcessingNet.Q[0]  qlen:vector  ETV
attr interpolationmode  sample-hold
attr title  "queue length, vector"
vector 2  WirelessProcessingNet.Q[1]  qlen:vector  ETV
attr interpolationmode  sample-hold
attr title  "queue length, vector"
vector 4  WirelessProcessingNet.Q[2]  qlen:vector  ETV
attr interpolationmode  sample-hold
attr title  "queue length, vector"
vector 6  WirelessProcessingNet.Q[3]  qlen:vector  ETV
attr interpolationmode  sample-hold
attr title  "queue length, vector"
vector 8  WirelessProcessingNet.Q[4]  qlen:vector  ETV
attr interpolationmode  sample-hold
attr title  "queue length, vector"
vector 10  WirelessProcessingNet.Q[5]  qlen:vector  ETV
attr interpolationmode  sample-hold
attr title  "queue length, vector"
vector 18  WirelessProcessingNet.src[0]  ""  ETV
vector 19  WirelessProcessingNet.src[1]  ""  ETV
vector 20  WirelessProcessingNet.src[2]  ""  ETV
vector 21  WirelessProcessingNet.src[3]  ""  ETV
vector 22  WirelessProcessingNet.src[4]  ""  ETV
vector 23  WirelessProcessingNet.src[5]  ""  ETV
vector 7  WirelessProcessingNet.Q[3]  queueingTime:vector  ETV
attr interpolationmode  none
attr title  "queueing time at dequeue, vector"
attr unit  s
vector 15  WirelessProcessingNet.dest[3]  lifetime:vector  ETV
attr interpolationmode  none
attr title  "lifetime of arrived jobs, vector"
attr unit  s
vector 3  WirelessProcessingNet.Q[1]  queueingTime:vector  ETV
attr interpolationmode  none
attr title  "queueing time at dequeue, vector"
attr unit  s
vector 13  WirelessProcessingNet.dest[1]  lifetime:vector  ETV
attr interpolationmode  none
attr title  "lifetime of arrived jobs, vector"
attr unit  s
vector 9  WirelessProcessingNet.Q[4]  queueingTime:vector  ETV
attr interpolationmode  none
attr title  "queueing time at dequeue, vector"
attr unit  s
vector 16  WirelessProcessingNet.dest[4]  lifetime:vector  ETV
attr interpolationmode  none
attr title  "lifetime of arrived jobs, vector"
attr unit  s
vector 1  WirelessProcessingNet.Q[0]  queueingTime:vector  ETV
attr interpolationmode  none
attr title  "queueing time at dequeue, vector"
attr unit  s
vector 12  WirelessProcessingNet.dest[0]  lifetime:vector  ETV
attr interpolationmode  none
attr title  "lifetime of arrived jobs, vector"
attr unit  s
vector 5  WirelessProcessingNet.Q[2]  queueingTime:vector  ETV
attr interpolationmode  none
attr title  "queueing time at dequeue, vector"
attr unit  s
vector 14  WirelessProcessingNet.dest[2]  lifetime:vector  ETV
attr interpolationmode  none
attr title  "lifetime of arrived jobs, vector"
attr unit  s
vector 11  WirelessProcessingNet.Q[5]  queueingTime:vector  ETV
attr interpolationmode  none
attr title  "queueing time at dequeue, vector"
attr unit  s
vector 17  WirelessProcessingNet.dest[5]  lifetime:vector  ETV
attr interpolationmode  none
attr title  "lifetime of arrived jobs, vector"
attr unit  s
0	0	0	0
0	7	0	1
0	47	0.5	2
0	88	1	3
0	130	1.5	4
0	174	2	5
0	252	2.5	6
0	321	2.73	5
0	332	3	6
0	439	3.5	7
0	487	4	8
0	563	4.5	9
0	632	4.87	8
0	643	5	9
0	716	5.5	10
0	762	6	11
0	795	6.1	10
0	802	6.5	11
0	870	6.77	10
0	879	7	11
0	921	7.5	12
0	962	8	13
0	1038	8.5	14
0	1117	9	15
0	1155	9.5	16
0	1239	10	17
0	1272	10.03	16
0	1312	10.5	17
0	1354	11	18
0	1387	11.18	17
0	1396	11.5	18
0	1475	12	19
0	1515	12.5	20
0	1559	13	21
0	1599	13.5	22
0	1645	14	23
0	1685	14.5	24
0	1695	15	25
0	1805	15.5	26
0	1851	16	27
0	1890	16.5	28
0	1965	17	29
0	2004	17.5	30
0	2048	18	31
0	2116	18.29	30
0	2121	18.5	31
0	2203	19	32
0	2279	19.5	33
1	321	2.73	2.73
1	632	4.87	4.37
1	795	6.1	5.1
1	870	6.77	5.27
1	1272	10.03	8.03
1	1387	11.18	8.68
1	2116	18.29	15.29
2	0	0	0
2	8	0	1
2	50	0.75	2
2	129	1.5	3
2	163	1.64	2
2	207	2.1	1
2	212	2.25	2
2	331	3	3
2	479	3.75	4
2	562	4.5	5
2	681	5.25	6
2	749	5.82	5
2	761	6	6
2	837	6.75	7
2	920	7.5	8
2	1000	8.25	9
2	1071	8.73	8
2	1116	9	9
2	1150	9.16	8
2	1229	9.75	9
2	1311	10.5	10
2	1394	11.25	11
2	1474	12	12
2	1553	12.75	13
2	1598	13.5	14
2	1683	14.25	15
2	1694	15	16
2	1843	15.75	17
2	1889	16.5	18
2	2000	17.25	19
2	2047	18	20
2	2161	18.75	21
2	2278	19.5	22
3	163	1.64	1.64
3	207	2.1	1.35
3	749	5.82	4.32
3	1071	8.73	6.48
3	1150	9.16	6.16
4	0	0	0
4	9	0	1
4	86	1	2
4	172	2	3
4	329	3	4
4	365	3.02	3
4	472	3.51	2
4	485	4	3
4	556	4.45	2
4	641	5	3
4	759	6	4
4	877	7	5
4	912	7.08	4
4	960	8	5
4	995	8.04	4
4	1114	9	5
4	1237	10	6
4	1345	10.64	5
4	1352	11	6
4	1462	11.73	5
4	1472	12	6
4	1557	13	7
4	1592	13.21	6
4	1643	14	7
4	1692	15	8
4	1764	15.21	7
4	1800	15.45	6
4	1849	16	7
4	1963	17	8
4	2045	18	9
4	2154	18.55	8
4	2194	18.76	7
4	2201	19	8
4	2272	19.21	7
5	365	3.02	3.02
5	472	3.51	2.51
5	556	4.45	2.45
5	912	7.08	4.08
5	995	8.04	4.04
5	1345	10.64	5.64
5	1462	11.73	5.73
5	1592	13.21	6.21
5	1764	15.21	7.21
5	1800	15.45	6.45
5	2154	18.55	8.55
5	2194	18.76	7.76
5	2272	19.21	7.21
6	0	0	0
6	10	0	1
6	90	1.25	2
6	123	1.28	1
6	251	2.5	2
6	401	3.15	1
6	478	3.75	2
6	640	5	3
6	800	6.25	4
6	919	7.5	5
6	1033	8.35	4
6	1076	8.75	5
6	1236	10	6
6	1393	11.25	7
6	1514	12.5	8
6	1548	12.73	7
6	1632	13.63	6
6	1637	13.75	7
6	1691	15	8
6	1838	15.66	7
6	1886	16.25	8
6	2003	17.5	9
6	2160	18.75	10
7	123	1.28	1.28
7	401	3.15	1.9
7	1033	8.35	5.85
7	1548	12.73	8.98
7	1632	13.63	8.63
7	1838	15.66	9.41
8	0	0	0
8	11	0	1
8	87	1	2
8	173	2	3
8	245	2.4	2
8	285	2.62	1
8	330	3	2
8	486	4	3
8	642	5	4
8	676	5.06	3
8	760	6	4
8	878	7	5
8	961	8	6
8	1115	9	7
8	1224	9.65	6
8	1238	10	7
8	1353	11	8
8	1473	12	9
8	1558	13	10
8	1644	14	11
8	1693	15	12
8	1728	15.01	11
8	1850	16	12
8	1923	16.59	11
8	1964	17	12
8	2046	18	13
8	2202	19	14
9	245	2.4	2.4
9	285	2.62	1.62
9	676	5.06	3.06
9	1224	9.65	6.65
9	1728	15.01	11.01
9	1923	16.59	11.59
10	0	0	0
10	12	0	1
10	171	2	2
10	484	4	3
10	520	4.09	2
10	596	4.6	1
10	758	6	2
10	959	8	3
10	1188	9.57	2
10	1235	10	3
10	1471	12	4
10	1508	12.12	3
10	1642	14	4
10	1678	14.21	3
10	1848	16	4
10	2044	18	5
10	2080	18	4
10	2236	19.05	3
10	2312	19.69	2
11	520	4.09	4.09
11	596	4.6	2.6
11	1188	9.57	5.57
11	1508	12.12	6.12
11	1678	14.21	6.21
11	2080	18	8
11	2236	19.05	7.05
11	2312	19.69	5.69
12	324	2.73	2.73
12	635	4.87	4.37
12	798	6.1	5.1
12	873	6.77	5.27
12	1275	10.03	8.03
12	1390	11.18	8.68
12	2119	18.29	15.29
13	166	1.64	1.64
13	210	2.1	1.35
13	752	5.82	4.32
13	1074	8.73	6.48
13	1153	9.16	6.16
14	368	3.02	3.02
14	475	3.51	2.51
14	559	4.45	2.45
14	915	7.08	4.08
14	998	8.04	4.04
14	1348	10.64	5.64
14	1465	11.73	5.73
14	1595	13.21	6.21
14	1767	15.21	7.21
14	1803	15.45	6.45
14	2157	18.55	8.55
14	2197	18.76	7.76
14	2275	19.21	7.21
15	126	1.28	1.28
15	404	3.15	1.9
15	1036	8.35	5.85
15	1551	12.73	8.98
15	1635	13.63	8.63
15	1841	15.66	9.41
16	248	2.4	2.4
16	288	2.62	1.62
16	679	5.06	3.06
16	1227	9.65	6.65
16	1731	15.01	11.01
16	1926	16.59	11.59
17	523	4.09	4.09
17	599	4.6	2.6
17	1191	9.57	5.57
17	1511	12.12	6.12
17	1681	14.21	6.21
17	2083	18	8
17	2239	19.05	7.05
17	2315	19.69	5.69
18	1	0	1
18	46	0.5	2
18	85	1	3
18	128	1.5	4
18	170	2	5
18	250	2.5	6
18	328	3	7
18	438	3.5	8
18	483	4	9
18	561	4.5	10
18	639	5	11
18	715	5.5	12
18	757	6	13
18	801	6.5	14
18	876	7	15
18	918	7.5	16
18	958	8	17
18	1037	8.5	18
18	1113	9	19
18	1154	9.5	20
18	1234	10	21
18	1310	10.5	22
18	1351	11	23
18	1395	11.5	24
18	1470	12	25
18	1513	12.5	26
18	1556	13	27
18	1597	13.5	28
18	1641	14	29
18	1684	14.5	30
18	1690	15	31
18	1804	15.5	32
18	1847	16	33
18	1888	16.5	34
18	1962	17	35
18	2002	17.5	36
18	2042	18	37
18	2120	18.5	38
18	2200	19	39
18	2277	19.5	40
19	2	0	1
19	48	0.75	2
19	127	1.5	3
19	211	2.25	4
19	327	3	5
19	477	3.75	6
19	560	4.5	7
19	680	5.25	8
19	756	6	9
19	836	6.75	10
19	917	7.5	11
19	999	8.25	12
19	1112	9	13
19	1228	9.75	14
19	1309	10.5	15
19	1392	11.25	16
19	1469	12	17
19	1552	12.75	18
19	1596	13.5	19
19	1682	14.25	20
19	1689	15	21
19	1842	15.75	22
19	1887	16.5	23
19	1999	17.25	24
19	2041	18	25
19	2159	18.75	26
19	2276	19.5	27
20	3	0	1
20	83	1	2
20	168	2	3
20	325	3	4
20	481	4	5
20	637	5	6
20	754	6	7
20	874	7	8
20	956	8	9
20	1110	9	10
20	1232	10	11
20	1349	11	12
20	1467	12	13
20	1554	13	14
20	1639	14	15
20	1687	15	16
20	1845	16	17
20	1960	17	18
20	2039	18	19
20	2198	19	20
21	4	0	1
21	89	1.25	2
21	249	2.5	3
21	476	3.75	4
21	636	5	5
21	799	6.25	6
21	916	7.5	7
21	1075	8.75	8
21	1231	10	9
21	1391	11.25	10
21	1512	12.5	11
21	1636	13.75	12
21	1686	15	13
21	1885	16.25	14
21	2001	17.5	15
21	2158	18.75	16
22	5	0	1
22	84	1	2
22	169	2	3
22	326	3	4
22	482	4	5
22	638	5	6
22	755	6	7
22	875	7	8
22	957	8	9
22	1111	9	10
22	1233	10	11
22	1350	11	12
22	1468	12	13
22	1555	13	14
22	1640	14	15
22	1688	15	16
22	1846	16	17
22	1961	17	18
22	2040	18	19
22	2199	19	20
23	6	0	1
23	167	2	2
23	480	4	3
23	753	6	4
23	955	8	5
23	1230	10	6
23	1466	12	7
23	1638	14	8
23	1844	16	9
23	2038	18	10
