version 2
run WirelessProcessingNet-0-20140527-22:24:07-4076
attr configname WirelessProcessingNet
attr datetime 20140527-22:24:07
attr experiment WirelessProcessingNet
attr inifile omnetpp.ini
attr iterationvars ""
attr iterationvars2 $repetition=0
attr measurement ""
attr network WirelessProcessingNet
attr processid 4076
attr repetition 0
attr replication #0
attr resultdir results
attr runnumber 0
attr seedset 0

vector 0  WirelessProcessingNet.Q[0]  qlen:vector  ETV
attr interpolationmode  sample-hold
attr title  "queue length, vector"
vector 2  WirelessProcessingNet.Q[1]  qlen:vector  ETV
attr interpolationmode  sample-hold
attr title  "queue length, vector"
vector 4  WirelessProcessingNet.Q[2]  qlen:vector  ETV
attr interpolationmode  sample-hold
attr title  "queue length, vector"
vector 6  WirelessProcessingNet.Q[3]  qlen:vector  ETV
attr interpolationmode  sample-hold
attr title  "queue length, vector"
vector 12  WirelessProcessingNet.src[0]  ""  ETV
vector 13  WirelessProcessingNet.src[1]  ""  ETV
vector 14  WirelessProcessingNet.src[2]  ""  ETV
vector 15  WirelessProcessingNet.src[3]  ""  ETV
vector 5  WirelessProcessingNet.Q[2]  queueingTime:vector  ETV
attr interpolationmode  none
attr title  "queueing time at dequeue, vector"
attr unit  s
vector 10  WirelessProcessingNet.dest[2]  lifetime:vector  ETV
attr interpolationmode  none
attr title  "lifetime of arrived jobs, vector"
attr unit  s
vector 7  WirelessProcessingNet.Q[3]  queueingTime:vector  ETV
attr interpolationmode  none
attr title  "queueing time at dequeue, vector"
attr unit  s
vector 11  WirelessProcessingNet.dest[3]  lifetime:vector  ETV
attr interpolationmode  none
attr title  "lifetime of arrived jobs, vector"
attr unit  s
vector 3  WirelessProcessingNet.Q[1]  queueingTime:vector  ETV
attr interpolationmode  none
attr title  "queueing time at dequeue, vector"
attr unit  s
vector 9  WirelessProcessingNet.dest[1]  lifetime:vector  ETV
attr interpolationmode  none
attr title  "lifetime of arrived jobs, vector"
attr unit  s
vector 1  WirelessProcessingNet.Q[0]  queueingTime:vector  ETV
attr interpolationmode  none
attr title  "queueing time at dequeue, vector"
attr unit  s
vector 8  WirelessProcessingNet.dest[0]  lifetime:vector  ETV
attr interpolationmode  none
attr title  "lifetime of arrived jobs, vector"
attr unit  s
0	0	0	0
0	5	0	1
0	31	0.5	2
0	61	1	3
0	88	1.5	4
0	116	2	5
0	146	2.5	6
0	191	2.95	5
0	200	3	6
0	202	3.5	7
0	290	3.99	6
0	297	4	7
0	346	4.5	8
0	352	5	9
0	380	5.5	10
0	410	6	11
0	438	6.5	12
0	492	7	13
0	546	7.5	14
0	567	7.83	13
0	574	8	14
0	602	8.5	15
0	670	8.82	14
0	679	9	15
0	705	9.5	16
0	726	9.64	15
0	761	10	16
0	789	10.5	17
0	793	11	18
0	823	11.5	19
0	853	12	20
0	874	12.27	19
0	881	12.5	20
0	911	13	21
0	963	13.5	22
0	994	14	23
0	1042	14.5	24
0	1063	14.52	23
0	1087	14.6	22
0	1099	15	23
0	1143	15.11	22
0	1172	15.5	23
0	1202	16	24
0	1232	16.5	25
0	1284	17	26
0	1314	17.5	27
0	1344	18	28
0	1388	18.5	29
0	1417	19	30
0	1421	19.5	31
0	1451	20	32
0	1474	20.26	31
0	1479	20.5	32
0	1500	20.53	31
0	1533	21	32
0	1561	21.5	33
0	1591	22	34
0	1612	22.32	33
0	1621	22.5	34
0	1642	22.61	33
0	1649	23	34
0	1670	23.04	33
0	1725	23.5	34
0	1757	24	35
0	1783	24.5	36
0	1815	25	37
0	1819	25.5	38
0	1893	26	39
0	1946	26.5	40
0	1994	27	41
0	2022	27.5	42
0	2043	27.57	41
0	2076	28	42
0	2080	28.5	43
0	2101	28.65	42
0	2151	28.89	41
0	2158	29	42
0	2162	29.5	43
0	2194	30	44
0	2215	30.31	43
0	2220	30.5	44
0	2250	31	45
0	2273	31.41	44
0	2280	31.5	45
0	2308	32	46
0	2338	32.5	47
0	2392	33	48
0	2418	33.5	49
0	2450	34	50
0	2454	34.5	51
0	2475	34.79	50
0	2484	35	51
0	2509	35.5	52
0	2530	35.53	51
0	2563	36	52
0	2591	36.5	53
0	2614	36.89	52
0	2621	37	53
0	2629	37.5	54
0	2652	38	55
0	2656	38.5	56
0	2679	38.78	55
0	2688	39	56
0	2762	39.5	57
0	2818	40	58
0	2870	40.5	59
0	2899	41	60
0	2952	41.5	61
0	2982	42	62
0	3010	42.5	63
0	3040	43	64
0	3061	43.32	63
0	3068	43.5	64
0	3074	44	65
0	3102	44.5	66
0	3134	45	67
0	3160	45.5	68
0	3183	45.9	67
0	3190	46	68
0	3244	46.5	69
0	3248	47	70
0	3326	47.5	71
0	3347	47.63	70
0	3380	48	71
0	3384	48.5	72
0	3438	49	73
0	3466	49.5	74
0	3496	50	75
0	3524	50.5	76
0	3530	51	77
0	3551	51.13	76
0	3558	51.5	77
0	3588	52	78
0	3618	52.5	79
0	3622	53	80
0	3645	53.36	79
0	3650	53.5	80
0	3682	54	81
0	3708	54.5	82
0	3731	54.78	81
0	3740	55	82
0	3792	55.5	83
0	3844	56	84
0	3874	56.5	85
0	3880	57	86
0	3908	57.5	87
0	3938	58	88
0	3990	58.5	89
0	4044	59	90
0	4072	59.5	91
0	4104	60	92
0	4202	60.5	93
0	4232	61	94
0	4255	61.49	93
0	4262	61.5	94
0	4283	61.82	93
0	4314	62	94
0	4320	62.5	95
0	4365	62.9	94
0	4374	63	95
0	4400	63.5	96
0	4432	64	97
0	4460	64.5	98
0	4466	65	99
0	4487	65.22	98
0	4542	65.5	99
0	4572	66	100
0	4593	66.03	99
0	4619	66.37	98
0	4624	66.5	99
0	4678	67	100
0	4708	67.5	101
0	4760	68	102
0	4788	68.5	103
0	4809	68.59	102
0	4844	69	103
0	4870	69.5	104
0	4902	70	105
0	4930	70.5	106
0	4982	71	107
0	5012	71.5	108
0	5033	71.55	107
0	5042	72	108
0	5070	72.5	109
0	5100	73	110
0	5128	73.5	111
0	5158	74	112
0	5186	74.5	113
0	5231	74.97	112
0	5242	75	113
0	5292	75.5	114
0	5322	76	115
0	5352	76.5	116
0	5404	77	117
0	5410	77.5	118
0	5431	77.77	117
0	5455	77.97	116
0	5464	78	117
0	5466	78.5	118
0	5487	78.51	117
0	5522	79	118
0	5550	79.5	119
0	5580	80	120
0	5608	80.5	121
0	5662	81	122
0	5690	81.5	123
0	5744	82	124
0	5774	82.5	125
0	5795	82.57	124
0	5826	83	125
0	5854	83.5	126
0	5875	83.72	125
0	5886	84	126
0	5936	84.5	127
0	5968	85	128
0	5972	85.5	129
0	5993	85.63	128
0	6024	86	129
0	6054	86.5	130
0	6084	87	131
0	6136	87.5	132
0	6166	88	133
0	6187	88.08	132
0	6194	88.5	133
0	6224	89	134
0	6228	89.5	135
0	6260	90	136
0	6286	90.5	137
0	6309	90.76	136
0	6316	91	137
0	6337	91.21	136
0	6370	91.5	137
0	6391	91.73	136
0	6398	92	137
0	6419	92.17	136
0	6428	92.5	137
0	6449	92.74	136
0	6458	93	137
0	6484	93.5	138
0	6516	94	139
0	6561	94.36	138
0	6568	94.5	139
0	6598	95	140
0	6621	95.36	139
0	6626	95.5	140
0	6657	96	141
0	6708	96.5	142
0	6738	97	143
0	6744	97.5	144
0	6772	98	145
0	6800	98.5	146
0	6832	99	147
0	6877	99.3	146
0	6882	99.5	147
0	6914	100	148
0	6966	100.5	149
0	6970	101	150
0	6995	101.29	149
0	7000	101.5	150
0	7006	102	151
0	7034	102.5	152
0	7064	103	153
0	7092	103.5	154
0	7098	104	155
0	7126	104.5	156
0	7159	105	157
0	7208	105.5	158
0	7238	106	159
0	7292	106.5	160
0	7313	106.73	159
0	7320	107	160
0	7391	107.43	159
0	7398	107.5	160
0	7452	108	161
0	7478	108.5	162
0	7503	108.85	161
0	7510	109	162
0	7538	109.5	163
0	7568	110	164
0	7597	110.5	165
0	7674	111	166
0	7702	111.5	167
0	7708	112	168
0	7729	112.04	167
0	7762	112.5	168
0	7766	113	169
0	7837	113.34	168
0	7866	113.5	169
0	7922	114	170
0	7948	114.5	171
0	7969	114.59	170
0	7980	115	171
0	8008	115.5	172
0	8036	116	173
0	8042	116.5	174
0	8072	117	175
0	8100	117.5	176
0	8130	118	177
0	8151	118.4	176
0	8158	118.5	177
0	8205	118.89	176
0	8212	119	177
0	8240	119.5	178
0	8272	120	179
0	8298	120.5	180
0	8321	120.86	179
0	8328	121	180
0	8351	121.36	179
0	8358	121.5	180
0	8362	122	181
0	8392	122.5	182
0	8398	123	183
0	8424	123.5	184
0	8480	124	185
0	8484	124.5	186
0	8538	125	187
0	8579	125.26	186
0	8590	125.5	187
0	8611	125.6	186
0	8635	125.74	185
0	8644	126	186
0	8696	126.5	187
0	8726	127	188
0	8756	127.5	189
0	8808	128	190
0	8812	128.5	191
0	8868	129	192
0	8894	129.5	193
0	8915	129.59	192
0	8974	130	193
0	8995	130.28	192
0	9002	130.5	193
0	9023	130.74	192
0	9030	131	193
0	9060	131.5	194
0	9105	131.95	193
0	9114	132	194
0	9135	132.07	193
0	9142	132.5	194
0	9165	132.96	193
0	9172	133	194
0	9200	133.5	195
0	9254	134	196
0	9282	134.5	197
0	9314	135	198
0	9340	135.5	199
0	9394	136	200
0	9400	136.5	201
0	9421	136.73	200
0	9428	137	201
0	9458	137.5	202
0	9464	138	203
0	9538	138.5	204
0	9594	139	205
0	9615	139.24	204
0	9622	139.5	205
0	9652	140	206
0	9704	140.5	207
0	9725	140.94	206
0	9734	141	207
0	9757	141.39	206
0	9762	141.5	207
0	9792	142	208
0	9798	142.5	209
0	9819	142.53	208
0	9826	143	209
0	9854	143.5	210
0	9875	143.58	209
0	9910	144	210
0	9912	144.5	211
0	9951	144.52	210
0	9968	145	211
0	9996	145.5	212
0	10024	146	213
0	10054	146.5	214
0	10108	147	215
0	10112	147.5	216
0	10142	148	217
0	10194	148.5	218
0	10215	148.56	217
0	10224	149	218
0	10269	149.19	217
0	10276	149.5	218
0	10286	150	219
0	10310	150.5	220
0	10381	150.93	219
0	10388	151	220
0	10409	151.22	219
0	10435	151.47	218
0	10442	151.5	219
0	10470	152	220
0	10524	152.5	221
0	10530	153	222
0	10556	153.5	223
0	10577	153.53	222
0	10612	154	223
0	10640	154.5	224
0	10661	154.78	223
0	10694	155	224
0	10722	155.5	225
0	10752	156	226
0	10780	156.5	227
0	10788	157	228
0	10807	157	227
0	10840	157.5	228
0	10892	158	229
0	10920	158.5	230
0	10941	158.64	229
0	11000	159	230
0	11026	159.5	231
0	11059	160	232
0	11110	160.5	233
0	11138	161	234
0	11168	161.5	235
0	11174	162	236
0	11202	162.5	237
0	11249	162.9	236
0	11256	163	237
0	11260	163.5	238
0	11290	164	239
0	11313	164.38	238
0	11318	164.5	239
0	11339	164.6	238
0	11398	165	239
0	11424	165.5	240
0	11445	165.62	239
0	11454	166	240
0	11549	166.45	239
0	11556	166.5	240
0	11584	167	241
0	11638	167.5	242
0	11668	168	243
0	11694	168.5	244
0	11750	169	245
0	11754	169.5	246
0	11775	169.59	245
0	11832	170	246
0	11853	170.09	245
0	11884	170.5	246
0	11914	171	247
0	11942	171.5	248
0	11948	172	249
0	12002	172.5	250
0	12006	173	251
0	12027	173.23	250
0	12034	173.5	251
0	12066	174	252
0	12116	174.5	253
0	12148	175	254
0	12169	175.43	253
0	12176	175.5	254
0	12205	176	255
0	12234	176.5	256
0	12264	177	257
0	12268	177.5	258
0	12298	178	259
0	12326	178.5	260
0	12356	179	261
0	12377	179.11	260
0	12403	179.34	259
0	12432	179.5	260
0	12488	180	261
0	12562	180.5	262
0	12616	181	263
0	12647	181.5	264
0	12674	182	265
0	12704	182.5	266
0	12734	183	267
0	12736	183.5	268
0	12792	184	269
0	12820	184.5	270
0	12826	185	271
0	12847	185.24	270
0	12854	185.5	271
0	12884	186	272
0	12912	186.5	273
0	12953	186.9	272
0	12966	187	273
0	12996	187.5	274
0	13017	187.77	273
0	13024	188	274
0	13071	188.32	273
0	13076	188.5	274
0	13132	189	275
0	13182	189.5	276
0	13214	190	277
0	13242	190.5	278
0	13248	191	279
0	13276	191.5	280
0	13306	192	281
0	13334	192.5	282
0	13342	193	283
0	13361	193	282
0	13385	193.39	281
0	13392	193.5	282
0	13437	193.67	281
0	13447	194	282
0	13498	194.5	283
0	13543	194.91	282
0	13554	195	283
0	13580	195.5	284
0	13601	195.54	283
0	13610	196	284
0	13640	196.5	285
0	13661	196.85	284
0	13668	197	285
0	13674	197.5	286
0	13719	197.89	285
0	13728	198	286
0	13754	198.5	287
0	13786	199	288
0	13814	199.5	289
0	13844	200	290
0	13872	200.5	291
0	13902	201	292
0	13949	201.45	291
0	13954	201.5	292
0	14001	201.95	291
0	14008	202	292
0	14029	202.45	291
0	14038	202.5	292
0	14059	202.91	291
0	14066	203	292
0	14094	203.5	293
0	14150	204	294
0	14171	204.23	293
0	14200	204.5	294
0	14280	205	295
0	14308	205.5	296
0	14329	205.78	295
0	14336	206	296
0	14366	206.5	297
0	14420	207	298
0	14448	207.5	299
0	14478	208	300
0	14506	208.5	301
0	14560	209	302
0	14564	209.5	303
0	14596	210	304
0	14622	210.5	305
1	191	2.95	2.95
1	290	3.99	3.49
1	567	7.83	6.83
1	670	8.82	7.32
1	726	9.64	7.64
1	874	12.27	9.77
1	1063	14.52	11.52
1	1087	14.6	11.1
1	1143	15.11	11.11
1	1474	20.26	15.76
1	1500	20.53	15.53
1	1612	22.32	16.82
1	1642	22.61	16.61
1	1670	23.04	16.54
1	2043	27.57	20.57
1	2101	28.65	21.15
1	2151	28.89	20.89
1	2215	30.31	21.81
1	2273	31.41	22.41
1	2475	34.79	25.29
1	2530	35.53	25.53
1	2614	36.89	26.39
1	2679	38.78	27.78
1	3061	43.32	31.82
1	3183	45.9	33.9
1	3347	47.63	35.13
1	3551	51.13	38.13
1	3645	53.36	39.86
1	3731	54.78	40.78
1	4255	61.49	46.99
1	4283	61.82	46.82
1	4365	62.9	47.4
1	4487	65.22	49.22
1	4593	66.03	49.53
1	4619	66.37	49.37
1	4809	68.59	51.09
1	5033	71.55	53.55
1	5231	74.97	56.47
1	5431	77.77	58.77
1	5455	77.97	58.47
1	5487	78.51	58.51
1	5795	82.57	62.07
1	5875	83.72	62.72
1	5993	85.63	64.13
1	6187	88.08	66.08
1	6309	90.76	68.26
1	6337	91.21	68.21
1	6391	91.73	68.23
1	6419	92.17	68.17
1	6449	92.74	68.24
1	6561	94.36	69.36
1	6621	95.36	69.86
1	6877	99.3	73.3
1	6995	101.29	74.79
1	7313	106.73	79.73
1	7391	107.43	79.93
1	7503	108.85	80.85
1	7729	112.04	83.54
1	7837	113.34	84.34
1	7969	114.59	85.09
1	8151	118.4	88.4
1	8205	118.89	88.39
1	8321	120.86	89.86
1	8351	121.36	89.86
1	8579	125.26	93.26
1	8611	125.6	93.1
1	8635	125.74	92.74
1	8915	129.59	96.09
1	8995	130.28	96.28
1	9023	130.74	96.24
1	9105	131.95	96.95
1	9135	132.07	96.57
1	9165	132.96	96.96
1	9421	136.73	100.23
1	9615	139.24	102.24
1	9725	140.94	103.44
1	9757	141.39	103.39
1	9819	142.53	104.03
1	9875	143.58	104.58
1	9951	144.52	105.02
1	10215	148.56	108.56
1	10269	149.19	108.69
1	10381	150.93	109.93
1	10409	151.22	109.72
1	10435	151.47	109.47
1	10577	153.53	111.03
1	10661	154.78	111.78
1	10807	157	113.5
1	10941	158.64	114.64
1	11249	162.9	118.4
1	11313	164.38	119.38
1	11339	164.6	119.1
1	11445	165.62	119.62
1	11549	166.45	119.95
1	11775	169.59	122.59
1	11853	170.09	122.59
1	12027	173.23	125.23
1	12169	175.43	126.93
1	12377	179.11	130.11
1	12403	179.34	129.84
1	12847	185.24	135.24
1	12953	186.9	136.4
1	13017	187.77	136.77
1	13071	188.32	136.82
1	13361	193	141
1	13385	193.39	140.89
1	13437	193.67	140.67
1	13543	194.91	141.41
1	13601	195.54	141.54
1	13661	196.85	142.35
1	13719	197.89	142.89
1	13949	201.45	145.95
1	14001	201.95	145.95
1	14029	202.45	145.95
1	14059	202.91	145.91
1	14171	204.23	146.73
1	14329	205.78	147.78
2	0	0	0
2	6	0	1
2	33	0.75	2
2	87	1.5	3
2	118	2.25	4
2	139	2.44	3
2	167	2.84	2
2	199	3	3
2	248	3.75	4
2	318	4.19	3
2	345	4.5	4
2	378	5.25	5
2	401	5.56	4
2	409	6	5
2	459	6.63	4
2	464	6.75	5
2	485	6.88	4
2	545	7.5	5
2	600	8.25	6
2	623	8.52	5
2	678	9	6
2	731	9.75	7
2	788	10.5	8
2	797	11.25	9
2	844	11.72	8
2	852	12	9
2	907	12.75	10
2	932	13.12	9
2	962	13.5	10
2	1014	14	9
2	1040	14.25	10
2	1098	15	11
2	1198	15.75	12
2	1223	16.02	11
2	1231	16.5	12
2	1253	16.64	11
2	1286	17.25	12
2	1307	17.48	11
2	1343	18	12
2	1392	18.75	13
2	1420	19.5	14
2	1453	20.25	15
2	1532	21	16
2	1554	21.19	15
2	1587	21.75	16
2	1620	22.5	17
2	1699	23.25	18
2	1748	23.87	17
2	1756	24	18
2	1778	24.43	17
2	1785	24.75	18
2	1806	24.97	17
2	1818	25.5	18
2	1920	26.25	19
2	1941	26.33	18
2	1993	27	19
2	2015	27.01	18
2	2067	27.71	17
2	2072	27.75	18
2	2079	28.5	19
2	2160	29.25	20
2	2183	29.71	19
2	2193	30	20
2	2246	30.75	21
2	2279	31.5	22
2	2329	32.14	21
2	2334	32.25	22
2	2383	32.81	21
2	2391	33	22
2	2446	33.75	23
2	2453	34.5	24
2	2507	35.25	25
2	2562	36	26
2	2593	36.75	27
2	2627	37.5	28
2	2654	38.25	29
2	2687	39	30
2	2733	39.32	29
2	2764	39.75	30
2	2785	39.77	29
2	2809	39.86	28
2	2839	40.29	27
2	2869	40.5	28
2	2891	40.54	27
2	2950	41.25	28
2	2973	41.57	27
2	2981	42	28
2	3031	42.59	27
2	3036	42.75	28
2	3067	43.5	29
2	3076	44.25	30
2	3123	44.94	29
2	3133	45	30
2	3155	45.42	29
2	3162	45.75	30
2	3213	46.38	29
2	3243	46.5	30
2	3298	47.25	31
2	3379	48	32
2	3410	48.75	33
2	3465	49.5	34
2	3522	50.25	35
2	3529	51	36
2	3584	51.75	37
2	3617	52.5	38
2	3624	53.25	39
2	3673	53.79	38
2	3681	54	39
2	3710	54.75	40
2	3785	55.45	39
2	3791	55.5	40
2	3837	55.95	39
2	3849	56.25	40
2	3869	56.25	39
2	3879	57	40
2	3934	57.75	41
2	3989	58.5	42
2	4011	58.55	41
2	4070	59.25	42
2	4103	60	43
2	4125	60.12	42
2	4149	60.23	41
2	4173	60.37	40
2	4204	60.75	41
2	4261	61.5	42
2	4316	62.25	43
2	4373	63	44
2	4404	63.75	45
2	4453	64.44	44
2	4459	64.5	45
2	4492	65.25	46
2	4513	65.34	45
2	4563	65.75	44
2	4571	66	45
2	4645	66.53	44
2	4650	66.75	45
2	4699	67.43	44
2	4707	67.5	45
2	4786	68.25	46
2	4843	69	47
2	4865	69.37	46
2	4896	69.75	47
2	4923	70.38	46
2	4929	70.5	47
2	4986	71.25	48
2	5041	72	49
2	5072	72.75	50
2	5093	72.92	49
2	5121	73.19	48
2	5127	73.5	49
2	5184	74.25	50
2	5207	74.65	49
2	5241	75	50
2	5294	75.75	51
2	5315	75.98	50
2	5343	76.18	49
2	5351	76.5	50
2	5406	77.25	51
2	5463	78	52
2	5494	78.75	53
2	5515	78.99	52
2	5549	79.5	53
2	5582	80.25	54
2	5661	81	55
2	5716	81.75	56
2	5773	82.5	57
2	5828	83.25	58
2	5885	84	59
2	5938	84.75	60
2	5971	85.5	61
2	6028	86.25	62
2	6049	86.37	61
2	6075	86.65	60
2	6083	87	61
2	6105	87.35	60
2	6129	87.47	59
2	6138	87.75	60
2	6193	88.5	61
2	6226	89.25	62
2	6259	90	63
2	6288	90.75	64
2	6363	91.45	63
2	6369	91.5	64
2	6424	92.25	65
2	6457	93	66
2	6512	93.75	67
2	6567	94.5	68
2	6600	95.25	69
2	6656	96	70
2	6710	96.75	71
2	6731	96.8	70
2	6743	97.5	71
2	6774	98.25	72
2	6831	99	73
2	6908	99.75	74
2	6935	100.11	73
2	6959	100.33	72
2	6965	100.5	73
2	6974	101.25	74
2	7005	102	75
2	7027	102.13	74
2	7055	102.57	73
2	7060	102.75	74
2	7085	103.11	73
2	7091	103.5	74
2	7119	104.15	73
2	7124	104.25	74
2	7158	105	75
2	7210	105.75	76
2	7231	105.77	75
2	7259	106.15	74
2	7291	106.5	75
2	7341	107.03	74
2	7370	107.25	75
2	7443	107.94	74
2	7451	108	75
2	7473	108.24	74
2	7482	108.75	75
2	7537	109.5	76
2	7594	110.25	77
2	7673	111	78
2	7704	111.75	79
2	7761	112.5	80
2	7816	113.25	81
2	7921	114	82
2	7943	114.15	81
2	7974	114.75	82
2	8007	115.5	83
2	8029	115.61	82
2	8040	116.25	83
2	8063	116.59	82
2	8071	117	83
2	8093	117.49	82
2	8102	117.75	83
2	8123	117.94	82
2	8157	118.5	83
2	8238	119.25	84
2	8261	119.52	83
2	8271	120	84
2	8293	120.25	83
2	8300	120.75	84
2	8357	121.5	85
2	8388	122.25	86
2	8397	123	87
2	8428	123.75	88
2	8473	123.97	87
2	8483	124.5	88
2	8540	125.25	89
2	8582	125.26	88
2	8643	126	89
2	8691	126.45	88
2	8699	126.75	89
2	8747	127.29	88
2	8755	127.5	89
2	8810	128.25	90
2	8867	129	91
2	8889	129.29	90
2	8920	129.75	91
2	9001	130.5	92
2	9051	131.06	91
2	9058	131.25	92
2	9081	131.7	91
2	9113	132	92
2	9144	132.75	93
2	9199	133.5	94
2	9280	134.25	95
2	9313	135	96
2	9366	135.75	97
2	9387	135.95	96
2	9399	136.5	97
2	9430	137.25	98
2	9463	138	99
2	9559	138.52	98
2	9566	138.75	99
2	9587	138.91	98
2	9621	139.5	99
2	9673	140.18	98
2	9678	140.25	99
2	9733	141	100
2	9764	141.75	101
2	9785	141.92	100
2	9797	142.5	101
2	9828	143.25	102
2	9901	143.93	101
2	9909	144	102
2	9954	144.52	101
2	9962	144.75	102
2	9995	145.5	103
2	10028	146.25	104
2	10049	146.27	103
2	10075	146.66	102
2	10099	146.95	101
2	10107	147	102
2	10133	147.66	101
2	10138	147.75	102
2	10163	148.27	101
2	10187	148.39	100
2	10193	148.5	101
2	10245	149.09	100
2	10274	149.25	101
2	10285	150	102
2	10305	150	101
2	10331	150.53	100
2	10336	150.75	101
2	10441	151.5	102
2	10520	152.25	103
2	10529	153	104
2	10585	153.75	105
2	10639	154.5	106
2	10696	155.25	107
2	10743	155.84	106
2	10751	156	107
2	10782	156.75	108
2	10839	157.5	109
2	10885	157.9	108
2	10918	158.25	109
2	10967	158.9	108
2	10999	159	109
2	11047	159.62	108
2	11052	159.75	109
2	11109	160.5	110
2	11131	160.82	109
2	11166	161.25	110
2	11173	162	111
2	11223	162.55	110
2	11228	162.75	111
2	11259	163.5	112
2	11283	163.75	111
2	11292	164.25	112
2	11397	165	113
2	11419	165.49	112
2	11450	165.75	113
2	11475	166.02	112
2	11499	166.23	111
2	11525	166.36	110
2	11555	166.5	111
2	11577	166.82	110
2	11610	167.25	111
2	11631	167.49	110
2	11659	167.86	109
2	11667	168	110
2	11722	168.75	111
2	11753	169.5	112
2	11858	170.25	113
2	11913	171	114
2	11944	171.75	115
2	11969	172.13	114
2	12001	172.5	115
2	12032	173.25	116
2	12065	174	117
2	12137	174.51	116
2	12142	174.75	117
2	12175	175.5	118
2	12197	175.78	117
2	12232	176.25	118
2	12255	176.81	117
2	12263	177	118
2	12294	177.75	119
2	12325	178.5	120
2	12349	178.88	119
2	12382	179.25	120
2	12477	179.86	119
2	12487	180	120
2	12583	180.74	119
2	12588	180.75	120
2	12637	181.22	119
2	12646	181.5	120
2	12676	182.25	121
2	12733	183	122
2	12764	183.75	123
2	12785	183.97	122
2	12819	184.5	123
2	12852	185.25	124
2	12875	185.76	123
2	12883	186	124
2	12914	186.75	125
2	12987	187.43	124
2	12995	187.5	125
2	13045	188.04	124
2	13050	188.25	125
2	13097	188.65	124
2	13131	189	125
2	13208	189.75	126
2	13235	190.49	125
2	13241	190.5	126
2	13267	191	125
2	13274	191.25	126
2	13305	192	127
2	13327	192.45	126
2	13336	192.75	127
2	13391	193.5	128
2	13472	194.25	129
2	13519	194.52	128
2	13553	195	129
2	13606	195.75	130
2	13639	196.5	131
2	13670	197.25	132
2	13727	198	133
2	13758	198.75	134
2	13813	199.5	135
2	13865	200.04	134
2	13870	200.25	135
2	13901	201	136
2	13956	201.75	137
2	14037	202.5	138
2	14092	203.25	139
2	14117	203.75	138
2	14141	203.93	137
2	14149	204	138
2	14250	204.75	139
2	14307	205.5	140
2	14364	206.25	141
2	14419	207	142
2	14441	207.28	141
2	14474	207.75	142
2	14499	208.33	141
2	14505	208.5	142
2	14562	209.25	143
2	14595	210	144
3	139	2.44	2.44
3	167	2.84	2.09
3	318	4.19	2.69
3	401	5.56	3.31
3	459	6.63	3.63
3	485	6.88	3.13
3	623	8.52	4.02
3	844	11.72	6.47
3	932	13.12	7.12
3	1014	14	7.25
3	1223	16.02	8.52
3	1253	16.64	8.39
3	1307	17.48	8.48
3	1554	21.19	11.44
3	1748	23.87	13.37
3	1778	24.43	13.18
3	1806	24.97	12.97
3	1941	26.33	13.58
3	2015	27.01	13.51
3	2067	27.71	13.46
3	2183	29.71	14.71
3	2329	32.14	16.39
3	2383	32.81	16.31
3	2733	39.32	22.07
3	2785	39.77	21.77
3	2809	39.86	21.11
3	2839	40.29	20.79
3	2891	40.54	20.29
3	2973	41.57	20.57
3	3031	42.59	20.84
3	3123	44.94	22.44
3	3155	45.42	22.17
3	3213	46.38	22.38
3	3673	53.79	29.04
3	3785	55.45	29.95
3	3837	55.95	29.7
3	3869	56.25	29.25
3	4011	58.55	30.8
3	4125	60.12	31.62
3	4149	60.23	30.98
3	4173	60.37	30.37
3	4453	64.44	33.69
3	4513	65.34	33.84
3	4563	65.75	33.5
3	4645	66.53	33.53
3	4699	67.43	33.68
3	4865	69.37	34.87
3	4923	70.38	35.13
3	5093	72.92	36.92
3	5121	73.19	36.44
3	5207	74.65	37.15
3	5315	75.98	37.73
3	5343	76.18	37.18
3	5515	78.99	39.24
3	6049	86.37	45.87
3	6075	86.65	45.4
3	6105	87.35	45.35
3	6129	87.47	44.72
3	6363	91.45	47.95
3	6731	96.8	52.55
3	6935	100.11	55.11
3	6959	100.33	54.58
3	7027	102.13	55.63
3	7055	102.57	55.32
3	7085	103.11	55.11
3	7119	104.15	55.4
3	7231	105.77	56.27
3	7259	106.15	55.9
3	7341	107.03	56.03
3	7443	107.94	56.19
3	7473	108.24	55.74
3	7943	114.15	60.9
3	8029	115.61	61.61
3	8063	116.59	61.84
3	8093	117.49	61.99
3	8123	117.94	61.69
3	8261	119.52	62.52
3	8293	120.25	62.5
3	8473	123.97	65.47
3	8582	125.26	66.01
3	8691	126.45	66.45
3	8747	127.29	66.54
3	8889	129.29	67.79
3	9051	131.06	68.81
3	9081	131.7	68.7
3	9387	135.95	72.2
3	9559	138.52	74.02
3	9587	138.91	73.66
3	9673	140.18	74.18
3	9785	141.92	75.17
3	9901	143.93	76.43
3	9954	144.52	76.27
3	10049	146.27	77.27
3	10075	146.66	76.91
3	10099	146.95	76.45
3	10133	147.66	76.41
3	10163	148.27	76.27
3	10187	148.39	75.64
3	10245	149.09	75.59
3	10305	150	75.75
3	10331	150.53	75.53
3	10743	155.84	80.09
3	10885	157.9	81.4
3	10967	158.9	81.65
3	11047	159.62	81.62
3	11131	160.82	82.07
3	11223	162.55	83.05
3	11283	163.75	83.5
3	11419	165.49	84.49
3	11475	166.02	84.27
3	11499	166.23	83.73
3	11525	166.36	83.11
3	11577	166.82	82.82
3	11631	167.49	82.74
3	11659	167.86	82.36
3	11969	172.13	85.88
3	12137	174.51	87.51
3	12197	175.78	88.03
3	12255	176.81	88.31
3	12349	178.88	89.63
3	12477	179.86	89.86
3	12583	180.74	89.99
3	12637	181.22	89.72
3	12785	183.97	91.72
3	12875	185.76	92.76
3	12987	187.43	93.68
3	13045	188.04	93.54
3	13097	188.65	93.4
3	13235	190.49	94.49
3	13267	191	94.25
3	13327	192.45	94.95
3	13519	194.52	96.27
3	13865	200.04	101.04
3	14117	203.75	104
3	14141	203.93	103.43
3	14441	207.28	106.03
3	14499	208.33	106.33
4	0	0	0
4	7	0	1
4	54	0.83	0
4	60	1	1
4	115	2	2
4	198	3	3
4	296	4	4
4	351	5	5
4	373	5.11	4
4	408	6	5
4	431	6.1	4
4	491	7	5
4	513	7.24	4
4	537	7.49	3
4	573	8	4
4	677	9	5
4	752	9.95	4
4	760	10	5
4	782	10.46	4
4	792	11	5
4	818	11.33	4
4	851	12	5
4	902	12.65	4
4	910	13	5
4	984	13.57	4
4	993	14	5
4	1097	15	6
4	1119	15	5
4	1201	16	6
4	1277	16.94	5
4	1283	17	6
4	1342	18	7
4	1416	19	8
4	1442	19.71	7
4	1450	20	8
4	1524	20.84	7
4	1531	21	8
4	1590	22	9
4	1648	23	10
4	1694	23.21	9
4	1755	24	10
4	1814	25	11
4	1864	25.62	10
4	1892	26	11
4	1913	26	10
4	1992	27	11
4	2075	28	12
4	2125	28.74	11
4	2157	29	12
4	2192	30	13
4	2249	31	14
4	2307	32	15
4	2390	33	16
4	2413	33.11	15
4	2449	34	16
4	2483	35	17
4	2554	35.89	16
4	2561	36	17
4	2584	36.02	16
4	2620	37	17
4	2651	38	18
4	2686	39	19
4	2757	39.47	18
4	2817	40	19
4	2863	40.39	18
4	2898	41	19
4	2919	41	18
4	2943	41.15	17
4	2980	42	18
4	3039	43	19
4	3073	44	20
4	3132	45	21
4	3189	46	22
4	3237	46.46	21
4	3247	47	22
4	3269	47.1	21
4	3293	47.24	20
4	3319	47.49	19
4	3371	47.85	18
4	3378	48	19
4	3437	49	20
4	3459	49.06	19
4	3487	49.87	18
4	3495	50	19
4	3517	50.23	18
4	3528	51	19
4	3579	51.53	18
4	3587	52	19
4	3609	52.45	18
4	3621	53	19
4	3680	54	20
4	3739	55	21
4	3761	55.06	20
4	3813	55.87	19
4	3843	56	20
4	3878	57	21
4	3901	57.04	20
4	3937	58	21
4	4037	58.89	20
4	4043	59	21
4	4065	59.03	20
4	4102	60	21
4	4225	60.84	20
4	4231	61	21
4	4313	62	22
4	4372	63	23
4	4395	63.34	22
4	4431	64	23
4	4465	65	24
4	4537	65.44	23
4	4570	66	24
4	4671	66.96	23
4	4677	67	24
4	4759	68	25
4	4835	68.99	24
4	4842	69	25
4	4901	70	26
4	4975	70.88	25
4	4981	71	26
4	5007	71.27	25
4	5040	72	26
4	5099	73	27
4	5157	74	28
4	5240	75	29
4	5263	75.32	28
4	5287	75.46	27
4	5321	76	28
4	5373	76.61	27
4	5403	77	28
4	5462	78	29
4	5521	79	30
4	5543	79.4	29
4	5579	80	30
4	5603	80.35	29
4	5629	80.55	28
4	5660	81	29
4	5685	81.46	28
4	5711	81.59	27
4	5737	81.9	26
4	5743	82	27
4	5819	82.71	26
4	5825	83	27
4	5884	84	28
4	5959	84.86	27
4	5967	85	28
4	6017	85.94	27
4	6023	86	28
4	6082	87	29
4	6159	87.83	28
4	6165	88	29
4	6223	89	30
4	6249	89.79	29
4	6258	90	30
4	6315	91	31
4	6397	92	32
4	6456	93	33
4	6505	93.65	32
4	6515	94	33
4	6537	94.05	32
4	6597	95	33
4	6647	95.84	32
4	6655	96	33
4	6737	97	34
4	6771	98	35
4	6823	98.77	34
4	6830	99	35
4	6913	100	36
4	6969	101	37
4	7004	102	38
4	7063	103	39
4	7097	104	40
4	7157	105	41
4	7203	105.14	40
4	7237	106	41
4	7285	106.25	40
4	7319	107	41
4	7365	107.23	40
4	7419	107.73	39
4	7450	108	40
4	7509	109	41
4	7559	109.59	40
4	7567	110	41
4	7589	110.11	40
4	7641	110.76	39
4	7665	110.93	38
4	7672	111	39
4	7707	112	40
4	7765	113	41
4	7805	113.18	40
4	7920	114	41
4	7979	115	42
4	8035	116	43
4	8070	117	44
4	8129	118	45
4	8211	119	46
4	8270	120	47
4	8327	121	48
4	8361	122	49
4	8396	123	50
4	8419	123.27	49
4	8479	124	50
4	8505	124.54	49
4	8529	124.87	48
4	8537	125	49
4	8642	126	50
4	8665	126.08	49
4	8725	127	50
4	8777	127.67	49
4	8801	127.76	48
4	8807	128	49
4	8833	128.55	48
4	8859	128.85	47
4	8866	129	48
4	8965	129.97	47
4	8973	130	48
4	9029	131	49
4	9112	132	50
4	9171	133	51
4	9193	133.18	50
4	9221	133.52	49
4	9245	133.68	48
4	9253	134	49
4	9275	134.12	48
4	9303	134.7	47
4	9312	135	48
4	9361	135.6	47
4	9393	136	48
4	9427	137	49
4	9462	138	50
4	9593	139	51
4	9651	140	52
4	9732	141	53
4	9791	142	54
4	9825	143	55
4	9849	143.31	54
4	9908	144	55
4	9967	145	56
4	9989	145.14	55
4	10023	146	56
4	10106	147	57
4	10141	148	58
4	10223	149	59
4	10283	150	60
4	10357	150.83	59
4	10387	151	60
4	10469	152	61
4	10509	152.19	60
4	10528	153	61
4	10605	153.75	60
4	10611	154	61
4	10693	155	62
4	10750	156	63
4	10775	156.27	62
4	10786	157	63
4	10861	157.55	62
4	10891	158	63
4	10991	158.98	62
4	10998	159	63
4	11058	160	64
4	11137	161	65
4	11159	161.07	64
4	11172	162	65
4	11255	163	66
4	11289	164	67
4	11363	164.8	66
4	11387	164.96	65
4	11396	165	66
4	11453	166	67
4	11583	167	68
4	11605	167.14	67
4	11666	168	68
4	11689	168.05	67
4	11715	168.65	66
4	11749	169	67
4	11799	169.78	66
4	11831	170	67
4	11912	171	68
4	11947	172	69
4	11993	172.34	68
4	12005	173	69
4	12055	173.62	68
4	12064	174	69
4	12087	174.02	68
4	12111	174.18	67
4	12147	175	68
4	12204	176	69
4	12225	176	68
4	12262	177	69
4	12297	178	70
4	12319	178.26	69
4	12355	179	70
4	12427	179.45	69
4	12453	179.59	68
4	12486	180	69
4	12527	180.2	68
4	12557	180.4	67
4	12609	180.93	66
4	12615	181	67
4	12667	181.5	66
4	12673	182	67
4	12697	182.46	66
4	12725	182.88	65
4	12732	183	66
4	12757	183.54	65
4	12791	184	66
4	12825	185	67
4	12882	186	68
4	12907	186.26	67
4	12965	187	68
4	13023	188	69
4	13130	189	70
4	13203	189.74	69
4	13213	190	70
4	13246	191	71
4	13297	191.91	70
4	13304	192	71
4	13340	193	72
4	13413	193.54	71
4	13446	194	72
4	13467	194	71
4	13493	194.48	70
4	13552	195	71
4	13575	195.38	70
4	13609	196	71
4	13667	197	72
4	13695	197.58	71
4	13726	198	72
4	13749	198.32	71
4	13785	199	72
4	13807	199.25	71
4	13843	200	72
4	13900	201	73
4	13923	201.11	72
4	14007	202	73
4	14065	203	74
4	14087	203.23	73
4	14148	204	74
4	14221	204.53	73
4	14271	204.84	72
4	14279	205	73
4	14335	206	74
4	14357	206.24	73
4	14387	206.76	72
4	14418	207	73
4	14477	208	74
4	14527	208.63	73
4	14559	209	74
4	14585	209.91	73
4	14594	210	74
4	14617	210.28	73
5	54	0.83	0.83
5	373	5.11	4.11
5	431	6.1	4.1
5	513	7.24	4.24
5	537	7.49	3.49
5	752	9.95	4.95
5	782	10.46	4.46
5	818	11.33	4.33
5	902	12.65	4.65
5	984	13.57	4.57
5	1119	15	5
5	1277	16.94	5.94
5	1442	19.71	7.71
5	1524	20.84	7.84
5	1694	23.21	9.21
5	1864	25.62	10.62
5	1913	26	10
5	2125	28.74	11.74
5	2413	33.11	15.11
5	2554	35.89	16.89
5	2584	36.02	16.02
5	2757	39.47	18.47
5	2863	40.39	18.39
5	2919	41	18
5	2943	41.15	17.15
5	3237	46.46	21.46
5	3269	47.1	21.1
5	3293	47.24	20.24
5	3319	47.49	19.49
5	3371	47.85	18.85
5	3459	49.06	19.06
5	3487	49.87	18.87
5	3517	50.23	18.23
5	3579	51.53	18.53
5	3609	52.45	18.45
5	3761	55.06	20.06
5	3813	55.87	19.87
5	3901	57.04	20.04
5	4037	58.89	20.89
5	4065	59.03	20.03
5	4225	60.84	20.84
5	4395	63.34	22.34
5	4537	65.44	23.44
5	4671	66.96	23.96
5	4835	68.99	24.99
5	4975	70.88	25.88
5	5007	71.27	25.27
5	5263	75.32	28.32
5	5287	75.46	27.46
5	5373	76.61	27.61
5	5543	79.4	29.4
5	5603	80.35	29.35
5	5629	80.55	28.55
5	5685	81.46	28.46
5	5711	81.59	27.59
5	5737	81.9	26.9
5	5819	82.71	26.71
5	5959	84.86	27.86
5	6017	85.94	27.94
5	6159	87.83	28.83
5	6249	89.79	29.79
5	6505	93.65	32.65
5	6537	94.05	32.05
5	6647	95.84	32.84
5	6823	98.77	34.77
5	7203	105.14	40.14
5	7285	106.25	40.25
5	7365	107.23	40.23
5	7419	107.73	39.73
5	7559	109.59	40.59
5	7589	110.11	40.11
5	7641	110.76	39.76
5	7665	110.93	38.93
5	7805	113.18	40.18
5	8419	123.27	49.27
5	8505	124.54	49.54
5	8529	124.87	48.87
5	8665	126.08	49.08
5	8777	127.67	49.67
5	8801	127.76	48.76
5	8833	128.55	48.55
5	8859	128.85	47.85
5	8965	129.97	47.97
5	9193	133.18	50.18
5	9221	133.52	49.52
5	9245	133.68	48.68
5	9275	134.12	48.12
5	9303	134.7	47.7
5	9361	135.6	47.6
5	9849	143.31	54.31
5	9989	145.14	55.14
5	10357	150.83	59.83
5	10509	152.19	60.19
5	10605	153.75	60.75
5	10775	156.27	62.27
5	10861	157.55	62.55
5	10991	158.98	62.98
5	11159	161.07	64.07
5	11363	164.8	66.8
5	11387	164.96	65.96
5	11605	167.14	67.14
5	11689	168.05	67.05
5	11715	168.65	66.65
5	11799	169.78	66.78
5	11993	172.34	68.34
5	12055	173.62	68.62
5	12087	174.02	68.02
5	12111	174.18	67.18
5	12225	176	68
5	12319	178.26	69.26
5	12427	179.45	69.45
5	12453	179.59	68.59
5	12527	180.2	68.2
5	12557	180.4	67.4
5	12609	180.93	66.93